<?xml version="1.0" encoding="UTF-8"?>

<!-- generated on 2024-05-26 23:27:21 by Eclipse SUMO sumo Version v1_20_0+0122-807036e9847
<configuration xmlns:xsi="http://www.w3.org/2001/XMLSchema-instance" xsi:noNamespaceSchemaLocation="http://sumo.dlr.de/xsd/sumoConfiguration.xsd">

    <input>
        <net-file value="SUMO-files/Crossroad.net.xml"/>
        <route-files value="SUMO-files/Crossroad.rou.xml"/>
    </input>

    <output>
        <tripinfo-output value="tripinfo.xml"/>
    </output>

    <time>
        <begin value="0"/>
        <end value="10000"/>
    </time>

    <traci_server>
        <remote-port value="63751"/>
    </traci_server>

</configuration>
-->

<tripinfos xmlns:xsi="http://www.w3.org/2001/XMLSchema-instance" xsi:noNamespaceSchemaLocation="http://sumo.dlr.de/xsd/tripinfo_file.xsd">
    <tripinfo id="1" depart="2.00" departLane="3_0" departPos="5.10" departSpeed="0.00" departDelay="0.00" arrival="21.00" arrivalLane="2_0" arrivalPos="89.60" arrivalSpeed="12.70" duration="19.00" routeLength="194.90" waitingTime="0.00" waitingCount="0" stopTime="0.00" timeLoss="3.69" rerouteNo="0" devices="tripinfo_1" vType="DEFAULT_VEHTYPE" speedFactor="0.94" vaporized=""/>
    <tripinfo id="4" depart="8.00" departLane="3_0" departPos="5.10" departSpeed="0.00" departDelay="0.00" arrival="26.00" arrivalLane="2_0" arrivalPos="89.60" arrivalSpeed="13.96" duration="18.00" routeLength="194.90" waitingTime="0.00" waitingCount="0" stopTime="0.00" timeLoss="3.50" rerouteNo="0" devices="tripinfo_4" vType="DEFAULT_VEHTYPE" speedFactor="1.03" vaporized=""/>
    <tripinfo id="3" depart="6.00" departLane="7_0" departPos="5.10" departSpeed="0.00" departDelay="0.00" arrival="32.00" arrivalLane="2_0" arrivalPos="89.60" arrivalSpeed="14.16" duration="26.00" routeLength="183.13" waitingTime="4.00" waitingCount="1" stopTime="0.00" timeLoss="12.72" rerouteNo="0" devices="tripinfo_3" vType="DEFAULT_VEHTYPE" speedFactor="1.08" vaporized=""/>
    <tripinfo id="0" depart="0.00" departLane="5_0" departPos="5.10" departSpeed="0.00" departDelay="0.00" arrival="33.00" arrivalLane="2_1" arrivalPos="89.60" arrivalSpeed="14.29" duration="33.00" routeLength="193.45" waitingTime="9.00" waitingCount="1" stopTime="0.00" timeLoss="18.57" rerouteNo="0" devices="tripinfo_0" vType="DEFAULT_VEHTYPE" speedFactor="1.06" vaporized=""/>
    <tripinfo id="5" depart="10.00" departLane="1_0" departPos="5.10" departSpeed="0.00" departDelay="0.00" arrival="39.00" arrivalLane="6_0" arrivalPos="89.60" arrivalSpeed="10.77" duration="29.00" routeLength="183.13" waitingTime="5.00" waitingCount="1" stopTime="0.00" timeLoss="12.24" rerouteNo="0" devices="tripinfo_5" vType="DEFAULT_VEHTYPE" speedFactor="0.83" vaporized=""/>
    <tripinfo id="6" depart="13.00" departLane="1_0" departPos="5.10" departSpeed="0.00" departDelay="1.00" arrival="39.00" arrivalLane="2_1" arrivalPos="89.60" arrivalSpeed="14.36" duration="26.00" routeLength="178.77" waitingTime="3.00" waitingCount="1" stopTime="0.00" timeLoss="11.67" rerouteNo="0" devices="tripinfo_6" vType="DEFAULT_VEHTYPE" speedFactor="1.05" vaporized=""/>
    <tripinfo id="10" depart="21.00" departLane="7_0" departPos="5.10" departSpeed="0.00" departDelay="1.00" arrival="44.00" arrivalLane="6_1" arrivalPos="89.60" arrivalSpeed="14.57" duration="23.00" routeLength="194.90" waitingTime="1.00" waitingCount="1" stopTime="0.00" timeLoss="9.73" rerouteNo="0" devices="tripinfo_10" vType="DEFAULT_VEHTYPE" speedFactor="1.09" vaporized=""/>
    <tripinfo id="9" depart="18.00" departLane="7_0" departPos="5.10" departSpeed="0.00" departDelay="0.00" arrival="45.00" arrivalLane="2_0" arrivalPos="89.60" arrivalSpeed="11.35" duration="27.00" routeLength="183.13" waitingTime="2.00" waitingCount="1" stopTime="0.00" timeLoss="10.41" rerouteNo="0" devices="tripinfo_9" vType="DEFAULT_VEHTYPE" speedFactor="0.86" vaporized=""/>
    <tripinfo id="14" depart="28.00" departLane="7_0" departPos="5.10" departSpeed="0.00" departDelay="0.00" arrival="46.00" arrivalLane="6_0" arrivalPos="89.60" arrivalSpeed="13.14" duration="18.00" routeLength="194.90" waitingTime="0.00" waitingCount="0" stopTime="0.00" timeLoss="3.66" rerouteNo="0" devices="tripinfo_14" vType="DEFAULT_VEHTYPE" speedFactor="0.99" vaporized=""/>
    <tripinfo id="12" depart="24.00" departLane="7_0" departPos="5.10" departSpeed="0.00" departDelay="0.00" arrival="47.00" arrivalLane="4_1" arrivalPos="89.60" arrivalSpeed="14.21" duration="23.00" routeLength="193.45" waitingTime="0.00" waitingCount="0" stopTime="0.00" timeLoss="8.05" rerouteNo="0" devices="tripinfo_12" vType="DEFAULT_VEHTYPE" speedFactor="1.05" vaporized=""/>
    <tripinfo id="15" depart="31.00" departLane="7_0" departPos="5.10" departSpeed="0.00" departDelay="1.00" arrival="50.00" arrivalLane="6_0" arrivalPos="89.60" arrivalSpeed="12.82" duration="19.00" routeLength="194.90" waitingTime="0.00" waitingCount="0" stopTime="0.00" timeLoss="3.69" rerouteNo="0" devices="tripinfo_15" vType="DEFAULT_VEHTYPE" speedFactor="0.93" vaporized=""/>
    <tripinfo id="2" depart="4.00" departLane="5_0" departPos="5.10" departSpeed="0.00" departDelay="0.00" arrival="51.00" arrivalLane="6_1" arrivalPos="89.60" arrivalSpeed="13.57" duration="47.00" routeLength="178.77" waitingTime="21.00" waitingCount="3" stopTime="0.00" timeLoss="33.36" rerouteNo="0" devices="tripinfo_2" vType="DEFAULT_VEHTYPE" speedFactor="1.01" vaporized=""/>
    <tripinfo id="16" depart="32.00" departLane="5_0" departPos="5.10" departSpeed="0.00" departDelay="0.00" arrival="52.00" arrivalLane="8_0" arrivalPos="89.60" arrivalSpeed="11.11" duration="20.00" routeLength="194.90" waitingTime="0.00" waitingCount="0" stopTime="0.00" timeLoss="3.39" rerouteNo="0" devices="tripinfo_16" vType="DEFAULT_VEHTYPE" speedFactor="0.88" vaporized=""/>
    <tripinfo id="18" depart="36.00" departLane="7_0" departPos="5.10" departSpeed="0.00" departDelay="0.00" arrival="55.00" arrivalLane="6_0" arrivalPos="89.60" arrivalSpeed="12.40" duration="19.00" routeLength="194.90" waitingTime="0.00" waitingCount="0" stopTime="0.00" timeLoss="3.35" rerouteNo="0" devices="tripinfo_18" vType="DEFAULT_VEHTYPE" speedFactor="0.94" vaporized=""/>
    <tripinfo id="19" depart="39.00" departLane="7_0" departPos="5.10" departSpeed="0.00" departDelay="1.00" arrival="56.00" arrivalLane="6_0" arrivalPos="89.60" arrivalSpeed="14.60" duration="17.00" routeLength="194.90" waitingTime="0.00" waitingCount="0" stopTime="0.00" timeLoss="4.85" rerouteNo="0" devices="tripinfo_19" vType="DEFAULT_VEHTYPE" speedFactor="1.16" vaporized=""/>
    <tripinfo id="7" depart="14.00" departLane="5_0" departPos="5.10" departSpeed="0.00" departDelay="0.00" arrival="60.00" arrivalLane="6_1" arrivalPos="89.60" arrivalSpeed="12.30" duration="46.00" routeLength="178.77" waitingTime="12.00" waitingCount="3" stopTime="0.00" timeLoss="29.56" rerouteNo="0" devices="tripinfo_7" vType="DEFAULT_VEHTYPE" speedFactor="0.89" vaporized=""/>
    <tripinfo id="20" depart="40.00" departLane="5_0" departPos="5.10" departSpeed="0.00" departDelay="0.00" arrival="61.00" arrivalLane="2_1" arrivalPos="89.60" arrivalSpeed="14.07" duration="21.00" routeLength="193.45" waitingTime="0.00" waitingCount="0" stopTime="0.00" timeLoss="6.64" rerouteNo="0" devices="tripinfo_20" vType="DEFAULT_VEHTYPE" speedFactor="1.02" vaporized=""/>
    <tripinfo id="24" depart="48.00" departLane="5_0" departPos="5.10" departSpeed="0.00" departDelay="0.00" arrival="70.00" arrivalLane="4_0" arrivalPos="89.60" arrivalSpeed="11.00" duration="22.00" routeLength="183.13" waitingTime="0.00" waitingCount="0" stopTime="0.00" timeLoss="4.85" rerouteNo="0" devices="tripinfo_24" vType="DEFAULT_VEHTYPE" speedFactor="0.83" vaporized=""/>
    <tripinfo id="27" depart="54.00" departLane="5_0" departPos="5.10" departSpeed="0.00" departDelay="0.00" arrival="75.00" arrivalLane="6_1" arrivalPos="89.60" arrivalSpeed="13.04" duration="21.00" routeLength="178.77" waitingTime="0.00" waitingCount="0" stopTime="0.00" timeLoss="6.40" rerouteNo="0" devices="tripinfo_27" vType="DEFAULT_VEHTYPE" speedFactor="0.95" vaporized=""/>
    <tripinfo id="30" depart="60.00" departLane="7_0" departPos="5.10" departSpeed="0.00" departDelay="0.00" arrival="76.00" arrivalLane="6_0" arrivalPos="89.60" arrivalSpeed="15.92" duration="16.00" routeLength="194.90" waitingTime="0.00" waitingCount="0" stopTime="0.00" timeLoss="3.87" rerouteNo="0" devices="tripinfo_30" vType="DEFAULT_VEHTYPE" speedFactor="1.18" vaporized=""/>
    <tripinfo id="31" depart="62.00" departLane="5_0" departPos="5.10" departSpeed="0.00" departDelay="0.00" arrival="82.00" arrivalLane="6_1" arrivalPos="89.60" arrivalSpeed="15.96" duration="20.00" routeLength="178.77" waitingTime="0.00" waitingCount="0" stopTime="0.00" timeLoss="7.15" rerouteNo="0" devices="tripinfo_31" vType="DEFAULT_VEHTYPE" speedFactor="1.15" vaporized=""/>
    <tripinfo id="13" depart="26.00" departLane="1_0" departPos="5.10" departSpeed="0.00" departDelay="0.00" arrival="86.00" arrivalLane="2_1" arrivalPos="89.60" arrivalSpeed="14.78" duration="60.00" routeLength="178.77" waitingTime="36.00" waitingCount="1" stopTime="0.00" timeLoss="47.12" rerouteNo="0" devices="tripinfo_13" vType="DEFAULT_VEHTYPE" speedFactor="1.12" vaporized=""/>
    <tripinfo id="8" depart="16.00" departLane="1_0" departPos="5.10" departSpeed="0.00" departDelay="0.00" arrival="87.00" arrivalLane="6_0" arrivalPos="89.60" arrivalSpeed="12.85" duration="71.00" routeLength="183.13" waitingTime="42.00" waitingCount="1" stopTime="0.00" timeLoss="55.69" rerouteNo="0" devices="tripinfo_8" vType="DEFAULT_VEHTYPE" speedFactor="0.94" vaporized=""/>
    <tripinfo id="11" depart="22.00" departLane="3_0" departPos="5.10" departSpeed="0.00" departDelay="0.00" arrival="87.00" arrivalLane="2_0" arrivalPos="89.60" arrivalSpeed="13.66" duration="65.00" routeLength="194.90" waitingTime="41.00" waitingCount="1" stopTime="0.00" timeLoss="50.60" rerouteNo="0" devices="tripinfo_11" vType="DEFAULT_VEHTYPE" speedFactor="1.03" vaporized=""/>
    <tripinfo id="17" depart="34.00" departLane="3_0" departPos="5.10" departSpeed="0.00" departDelay="0.00" arrival="87.00" arrivalLane="6_1" arrivalPos="89.60" arrivalSpeed="12.87" duration="53.00" routeLength="193.45" waitingTime="29.00" waitingCount="1" stopTime="0.00" timeLoss="37.37" rerouteNo="0" devices="tripinfo_17" vType="DEFAULT_VEHTYPE" speedFactor="0.94" vaporized=""/>
    <tripinfo id="25" depart="50.00" departLane="3_0" departPos="5.10" departSpeed="0.00" departDelay="0.00" arrival="89.00" arrivalLane="2_0" arrivalPos="89.60" arrivalSpeed="11.74" duration="39.00" routeLength="194.90" waitingTime="16.00" waitingCount="1" stopTime="0.00" timeLoss="22.75" rerouteNo="0" devices="tripinfo_25" vType="DEFAULT_VEHTYPE" speedFactor="0.87" vaporized=""/>
    <tripinfo id="21" depart="42.00" departLane="1_0" departPos="5.10" departSpeed="0.00" departDelay="0.00" arrival="90.00" arrivalLane="4_0" arrivalPos="89.60" arrivalSpeed="13.86" duration="48.00" routeLength="194.90" waitingTime="22.00" waitingCount="1" stopTime="0.00" timeLoss="33.20" rerouteNo="0" devices="tripinfo_21" vType="DEFAULT_VEHTYPE" speedFactor="1.01" vaporized=""/>
    <tripinfo id="22" depart="45.00" departLane="1_0" departPos="5.10" departSpeed="0.00" departDelay="1.00" arrival="90.00" arrivalLane="2_1" arrivalPos="89.60" arrivalSpeed="13.41" duration="45.00" routeLength="178.77" waitingTime="20.00" waitingCount="1" stopTime="0.00" timeLoss="30.74" rerouteNo="0" devices="tripinfo_22" vType="DEFAULT_VEHTYPE" speedFactor="0.97" vaporized=""/>
    <tripinfo id="23" depart="47.00" departLane="1_0" departPos="5.10" departSpeed="0.00" departDelay="1.00" arrival="92.00" arrivalLane="4_0" arrivalPos="89.60" arrivalSpeed="12.05" duration="45.00" routeLength="194.90" waitingTime="19.00" waitingCount="1" stopTime="0.00" timeLoss="28.68" rerouteNo="0" devices="tripinfo_23" vType="DEFAULT_VEHTYPE" speedFactor="0.89" vaporized=""/>
    <tripinfo id="26" depart="53.00" departLane="3_0" departPos="5.10" departSpeed="0.00" departDelay="1.00" arrival="92.00" arrivalLane="8_0" arrivalPos="89.60" arrivalSpeed="11.57" duration="39.00" routeLength="183.13" waitingTime="13.00" waitingCount="1" stopTime="0.00" timeLoss="23.56" rerouteNo="0" devices="tripinfo_26" vType="DEFAULT_VEHTYPE" speedFactor="0.92" vaporized=""/>
    <tripinfo id="28" depart="56.00" departLane="1_0" departPos="5.10" departSpeed="0.00" departDelay="0.00" arrival="93.00" arrivalLane="6_0" arrivalPos="89.60" arrivalSpeed="14.71" duration="37.00" routeLength="183.13" waitingTime="12.00" waitingCount="1" stopTime="0.00" timeLoss="24.43" rerouteNo="0" devices="tripinfo_28" vType="DEFAULT_VEHTYPE" speedFactor="1.13" vaporized=""/>
    <tripinfo id="29" depart="59.00" departLane="1_0" departPos="5.10" departSpeed="0.00" departDelay="1.00" arrival="94.00" arrivalLane="4_1" arrivalPos="89.60" arrivalSpeed="11.96" duration="35.00" routeLength="194.90" waitingTime="7.00" waitingCount="1" stopTime="0.00" timeLoss="19.10" rerouteNo="0" devices="tripinfo_29" vType="DEFAULT_VEHTYPE" speedFactor="0.93" vaporized=""/>
    <tripinfo id="34" depart="68.00" departLane="3_0" departPos="5.10" departSpeed="0.00" departDelay="0.00" arrival="97.00" arrivalLane="4_1" arrivalPos="89.60" arrivalSpeed="12.78" duration="29.00" routeLength="178.77" waitingTime="4.00" waitingCount="1" stopTime="0.00" timeLoss="14.35" rerouteNo="0" devices="tripinfo_34" vType="DEFAULT_VEHTYPE" speedFactor="0.99" vaporized=""/>
    <tripinfo id="33" depart="66.00" departLane="1_0" departPos="5.10" departSpeed="0.00" departDelay="0.00" arrival="98.00" arrivalLane="2_1" arrivalPos="89.60" arrivalSpeed="15.25" duration="32.00" routeLength="178.77" waitingTime="0.00" waitingCount="0" stopTime="0.00" timeLoss="19.82" rerouteNo="0" devices="tripinfo_33" vType="DEFAULT_VEHTYPE" speedFactor="1.17" vaporized=""/>
    <tripinfo id="39" depart="78.00" departLane="3_0" departPos="5.10" departSpeed="0.00" departDelay="0.00" arrival="98.00" arrivalLane="2_0" arrivalPos="89.60" arrivalSpeed="12.47" duration="20.00" routeLength="194.90" waitingTime="0.00" waitingCount="0" stopTime="0.00" timeLoss="3.50" rerouteNo="0" devices="tripinfo_39" vType="DEFAULT_VEHTYPE" speedFactor="0.90" vaporized=""/>
    <tripinfo id="37" depart="74.00" departLane="5_0" departPos="5.10" departSpeed="0.00" departDelay="0.00" arrival="103.00" arrivalLane="4_0" arrivalPos="89.60" arrivalSpeed="15.91" duration="29.00" routeLength="183.13" waitingTime="6.00" waitingCount="1" stopTime="0.00" timeLoss="17.05" rerouteNo="0" devices="tripinfo_37" vType="DEFAULT_VEHTYPE" speedFactor="1.18" vaporized=""/>
    <tripinfo id="41" depart="83.00" departLane="5_0" departPos="5.10" departSpeed="0.00" departDelay="1.00" arrival="103.00" arrivalLane="8_1" arrivalPos="89.60" arrivalSpeed="12.90" duration="20.00" routeLength="194.90" waitingTime="0.00" waitingCount="0" stopTime="0.00" timeLoss="5.12" rerouteNo="0" devices="tripinfo_41" vType="DEFAULT_VEHTYPE" speedFactor="0.96" vaporized=""/>
    <tripinfo id="43" depart="86.00" departLane="7_0" departPos="5.10" departSpeed="0.00" departDelay="0.00" arrival="104.00" arrivalLane="6_0" arrivalPos="89.60" arrivalSpeed="13.53" duration="18.00" routeLength="194.90" waitingTime="0.00" waitingCount="0" stopTime="0.00" timeLoss="4.01" rerouteNo="0" devices="tripinfo_43" vType="DEFAULT_VEHTYPE" speedFactor="1.04" vaporized=""/>
    <tripinfo id="40" depart="80.00" departLane="5_0" departPos="5.10" departSpeed="0.00" departDelay="0.00" arrival="106.00" arrivalLane="4_0" arrivalPos="89.60" arrivalSpeed="14.29" duration="26.00" routeLength="183.13" waitingTime="4.00" waitingCount="1" stopTime="0.00" timeLoss="12.37" rerouteNo="0" devices="tripinfo_40" vType="DEFAULT_VEHTYPE" speedFactor="1.03" vaporized=""/>
    <tripinfo id="32" depart="64.00" departLane="7_0" departPos="5.10" departSpeed="0.00" departDelay="0.00" arrival="107.00" arrivalLane="8_1" arrivalPos="89.60" arrivalSpeed="13.54" duration="43.00" routeLength="178.77" waitingTime="16.00" waitingCount="1" stopTime="0.00" timeLoss="28.42" rerouteNo="0" devices="tripinfo_32" vType="DEFAULT_VEHTYPE" speedFactor="1.01" vaporized=""/>
    <tripinfo id="36" depart="72.00" departLane="7_0" departPos="5.10" departSpeed="0.00" departDelay="0.00" arrival="110.00" arrivalLane="4_1" arrivalPos="89.60" arrivalSpeed="12.48" duration="38.00" routeLength="193.45" waitingTime="12.00" waitingCount="1" stopTime="0.00" timeLoss="22.46" rerouteNo="0" devices="tripinfo_36" vType="DEFAULT_VEHTYPE" speedFactor="0.97" vaporized=""/>
    <tripinfo id="38" depart="76.00" departLane="7_0" departPos="5.10" departSpeed="0.00" departDelay="0.00" arrival="112.00" arrivalLane="4_1" arrivalPos="89.60" arrivalSpeed="14.60" duration="36.00" routeLength="193.45" waitingTime="10.00" waitingCount="1" stopTime="0.00" timeLoss="22.37" rerouteNo="0" devices="tripinfo_38" vType="DEFAULT_VEHTYPE" speedFactor="1.10" vaporized=""/>
    <tripinfo id="46" depart="92.00" departLane="7_0" departPos="5.10" departSpeed="0.00" departDelay="0.00" arrival="116.00" arrivalLane="4_1" arrivalPos="89.60" arrivalSpeed="13.14" duration="24.00" routeLength="193.45" waitingTime="0.00" waitingCount="0" stopTime="0.00" timeLoss="8.89" rerouteNo="0" devices="tripinfo_46" vType="DEFAULT_VEHTYPE" speedFactor="1.00" vaporized=""/>
    <tripinfo id="48" depart="96.00" departLane="7_0" departPos="5.10" departSpeed="0.00" departDelay="0.00" arrival="116.00" arrivalLane="6_0" arrivalPos="89.60" arrivalSpeed="11.49" duration="20.00" routeLength="194.90" waitingTime="0.00" waitingCount="0" stopTime="0.00" timeLoss="3.59" rerouteNo="0" devices="tripinfo_48" vType="DEFAULT_VEHTYPE" speedFactor="0.88" vaporized=""/>
    <tripinfo id="49" depart="99.00" departLane="7_0" departPos="5.10" departSpeed="0.00" departDelay="1.00" arrival="122.00" arrivalLane="8_1" arrivalPos="89.60" arrivalSpeed="10.96" duration="23.00" routeLength="178.77" waitingTime="0.00" waitingCount="0" stopTime="0.00" timeLoss="6.48" rerouteNo="0" devices="tripinfo_49" vType="DEFAULT_VEHTYPE" speedFactor="0.85" vaporized=""/>
    <tripinfo id="51" depart="102.00" departLane="5_0" departPos="5.10" departSpeed="0.00" departDelay="0.00" arrival="122.00" arrivalLane="6_1" arrivalPos="89.60" arrivalSpeed="13.87" duration="20.00" routeLength="178.77" waitingTime="0.00" waitingCount="0" stopTime="0.00" timeLoss="8.15" rerouteNo="0" devices="tripinfo_51" vType="DEFAULT_VEHTYPE" speedFactor="1.17" vaporized=""/>
    <tripinfo id="55" depart="110.00" departLane="7_0" departPos="5.10" departSpeed="0.00" departDelay="0.00" arrival="131.00" arrivalLane="4_1" arrivalPos="89.60" arrivalSpeed="13.24" duration="21.00" routeLength="193.45" waitingTime="0.00" waitingCount="0" stopTime="0.00" timeLoss="5.81" rerouteNo="0" devices="tripinfo_55" vType="DEFAULT_VEHTYPE" speedFactor="1.00" vaporized=""/>
    <tripinfo id="56" depart="112.00" departLane="5_0" departPos="5.10" departSpeed="0.00" departDelay="0.00" arrival="134.00" arrivalLane="2_1" arrivalPos="89.60" arrivalSpeed="11.96" duration="22.00" routeLength="193.45" waitingTime="0.00" waitingCount="0" stopTime="0.00" timeLoss="4.82" rerouteNo="0" devices="tripinfo_56" vType="DEFAULT_VEHTYPE" speedFactor="0.90" vaporized=""/>
    <tripinfo id="57" depart="114.00" departLane="7_0" departPos="5.10" departSpeed="0.00" departDelay="0.00" arrival="134.00" arrivalLane="8_1" arrivalPos="89.60" arrivalSpeed="15.77" duration="20.00" routeLength="178.77" waitingTime="0.00" waitingCount="0" stopTime="0.00" timeLoss="7.37" rerouteNo="0" devices="tripinfo_57" vType="DEFAULT_VEHTYPE" speedFactor="1.14" vaporized=""/>
    <tripinfo id="45" depart="90.00" departLane="1_0" departPos="5.10" departSpeed="0.00" departDelay="0.00" arrival="139.00" arrivalLane="6_0" arrivalPos="89.60" arrivalSpeed="14.28" duration="49.00" routeLength="183.13" waitingTime="27.00" waitingCount="1" stopTime="0.00" timeLoss="36.26" rerouteNo="0" devices="tripinfo_45" vType="DEFAULT_VEHTYPE" speedFactor="1.09" vaporized=""/>
    <tripinfo id="42" depart="84.00" departLane="3_0" departPos="5.10" departSpeed="0.00" departDelay="0.00" arrival="140.00" arrivalLane="2_0" arrivalPos="89.60" arrivalSpeed="14.96" duration="56.00" routeLength="194.90" waitingTime="33.00" waitingCount="1" stopTime="0.00" timeLoss="42.85" rerouteNo="0" devices="tripinfo_42" vType="DEFAULT_VEHTYPE" speedFactor="1.09" vaporized=""/>
    <tripinfo id="47" depart="94.00" departLane="1_0" departPos="5.10" departSpeed="0.00" departDelay="0.00" arrival="143.00" arrivalLane="4_0" arrivalPos="89.60" arrivalSpeed="11.37" duration="49.00" routeLength="194.90" waitingTime="25.00" waitingCount="1" stopTime="0.00" timeLoss="33.13" rerouteNo="0" devices="tripinfo_47" vType="DEFAULT_VEHTYPE" speedFactor="0.90" vaporized=""/>
    <tripinfo id="54" depart="108.00" departLane="3_0" departPos="5.10" departSpeed="0.00" departDelay="0.00" arrival="143.00" arrivalLane="8_0" arrivalPos="89.60" arrivalSpeed="13.05" duration="35.00" routeLength="183.13" waitingTime="11.00" waitingCount="1" stopTime="0.00" timeLoss="20.20" rerouteNo="0" devices="tripinfo_54" vType="DEFAULT_VEHTYPE" speedFactor="1.00" vaporized=""/>
    <tripinfo id="35" depart="70.00" departLane="1_0" departPos="5.10" departSpeed="0.00" departDelay="0.00" arrival="144.00" arrivalLane="8_1" arrivalPos="89.60" arrivalSpeed="13.96" duration="74.00" routeLength="193.45" waitingTime="40.00" waitingCount="2" stopTime="0.00" timeLoss="59.23" rerouteNo="0" devices="tripinfo_35" vType="DEFAULT_VEHTYPE" speedFactor="1.02" vaporized=""/>
    <tripinfo id="44" depart="88.00" departLane="1_0" departPos="5.10" departSpeed="0.00" departDelay="0.00" arrival="147.00" arrivalLane="2_1" arrivalPos="89.60" arrivalSpeed="13.30" duration="59.00" routeLength="178.77" waitingTime="31.00" waitingCount="1" stopTime="0.00" timeLoss="44.81" rerouteNo="0" devices="tripinfo_44" vType="DEFAULT_VEHTYPE" speedFactor="1.04" vaporized=""/>
    <tripinfo id="50" depart="100.00" departLane="1_0" departPos="5.10" departSpeed="0.00" departDelay="0.00" arrival="147.00" arrivalLane="6_0" arrivalPos="89.60" arrivalSpeed="11.53" duration="47.00" routeLength="183.13" waitingTime="20.00" waitingCount="1" stopTime="0.00" timeLoss="29.82" rerouteNo="0" devices="tripinfo_50" vType="DEFAULT_VEHTYPE" speedFactor="0.85" vaporized=""/>
    <tripinfo id="53" depart="106.00" departLane="1_0" departPos="5.10" departSpeed="0.00" departDelay="0.00" arrival="148.00" arrivalLane="4_1" arrivalPos="89.60" arrivalSpeed="14.59" duration="42.00" routeLength="194.90" waitingTime="12.00" waitingCount="1" stopTime="0.00" timeLoss="28.59" rerouteNo="0" devices="tripinfo_53" vType="DEFAULT_VEHTYPE" speedFactor="1.10" vaporized=""/>
    <tripinfo id="62" depart="124.00" departLane="1_0" departPos="5.10" departSpeed="0.00" departDelay="0.00" arrival="148.00" arrivalLane="4_0" arrivalPos="89.60" arrivalSpeed="13.13" duration="24.00" routeLength="194.90" waitingTime="0.00" waitingCount="0" stopTime="0.00" timeLoss="9.60" rerouteNo="0" devices="tripinfo_62" vType="DEFAULT_VEHTYPE" speedFactor="1.02" vaporized=""/>
    <tripinfo id="65" depart="130.00" departLane="3_0" departPos="5.10" departSpeed="0.00" departDelay="0.00" arrival="149.00" arrivalLane="2_0" arrivalPos="89.60" arrivalSpeed="11.97" duration="19.00" routeLength="194.90" waitingTime="0.00" waitingCount="0" stopTime="0.00" timeLoss="2.73" rerouteNo="0" devices="tripinfo_65" vType="DEFAULT_VEHTYPE" speedFactor="0.88" vaporized=""/>
    <tripinfo id="63" depart="127.00" departLane="1_0" departPos="5.10" departSpeed="0.00" departDelay="1.00" arrival="152.00" arrivalLane="8_1" arrivalPos="89.60" arrivalSpeed="12.52" duration="25.00" routeLength="193.45" waitingTime="0.00" waitingCount="0" stopTime="0.00" timeLoss="9.83" rerouteNo="0" devices="tripinfo_63" vType="DEFAULT_VEHTYPE" speedFactor="0.99" vaporized=""/>
    <tripinfo id="67" depart="134.00" departLane="1_0" departPos="5.10" departSpeed="0.00" departDelay="0.00" arrival="154.00" arrivalLane="4_0" arrivalPos="89.60" arrivalSpeed="12.27" duration="20.00" routeLength="194.90" waitingTime="0.00" waitingCount="0" stopTime="0.00" timeLoss="4.14" rerouteNo="0" devices="tripinfo_67" vType="DEFAULT_VEHTYPE" speedFactor="0.91" vaporized=""/>
    <tripinfo id="52" depart="104.00" departLane="3_0" departPos="5.10" departSpeed="0.00" departDelay="0.00" arrival="157.00" arrivalLane="6_1" arrivalPos="89.60" arrivalSpeed="13.45" duration="53.00" routeLength="193.45" waitingTime="26.00" waitingCount="2" stopTime="0.00" timeLoss="38.15" rerouteNo="0" devices="tripinfo_52" vType="DEFAULT_VEHTYPE" speedFactor="1.02" vaporized=""/>
    <tripinfo id="68" depart="137.00" departLane="1_0" departPos="5.10" departSpeed="0.00" departDelay="1.00" arrival="157.00" arrivalLane="8_1" arrivalPos="89.60" arrivalSpeed="13.50" duration="20.00" routeLength="193.45" waitingTime="0.00" waitingCount="0" stopTime="0.00" timeLoss="5.24" rerouteNo="0" devices="tripinfo_68" vType="DEFAULT_VEHTYPE" speedFactor="1.04" vaporized=""/>
    <tripinfo id="58" depart="116.00" departLane="3_0" departPos="5.10" departSpeed="0.00" departDelay="0.00" arrival="159.00" arrivalLane="6_1" arrivalPos="89.60" arrivalSpeed="12.97" duration="43.00" routeLength="193.45" waitingTime="14.00" waitingCount="2" stopTime="0.00" timeLoss="28.41" rerouteNo="0" devices="tripinfo_58" vType="DEFAULT_VEHTYPE" speedFactor="1.02" vaporized=""/>
    <tripinfo id="60" depart="120.00" departLane="7_0" departPos="5.10" departSpeed="0.00" departDelay="0.00" arrival="164.00" arrivalLane="6_0" arrivalPos="89.60" arrivalSpeed="13.93" duration="44.00" routeLength="194.90" waitingTime="20.00" waitingCount="1" stopTime="0.00" timeLoss="30.97" rerouteNo="0" devices="tripinfo_60" vType="DEFAULT_VEHTYPE" speedFactor="1.08" vaporized=""/>
    <tripinfo id="61" depart="123.00" departLane="7_0" departPos="5.10" departSpeed="0.00" departDelay="1.00" arrival="164.00" arrivalLane="6_1" arrivalPos="89.60" arrivalSpeed="15.52" duration="41.00" routeLength="194.90" waitingTime="19.00" waitingCount="1" stopTime="0.00" timeLoss="28.46" rerouteNo="0" devices="tripinfo_61" vType="DEFAULT_VEHTYPE" speedFactor="1.12" vaporized=""/>
    <tripinfo id="69" depart="138.00" departLane="7_0" departPos="5.10" departSpeed="0.00" departDelay="0.00" arrival="166.00" arrivalLane="2_0" arrivalPos="89.60" arrivalSpeed="13.18" duration="28.00" routeLength="183.13" waitingTime="5.00" waitingCount="1" stopTime="0.00" timeLoss="13.97" rerouteNo="0" devices="tripinfo_69" vType="DEFAULT_VEHTYPE" speedFactor="1.02" vaporized=""/>
    <tripinfo id="64" depart="128.00" departLane="7_0" departPos="5.10" departSpeed="0.00" departDelay="0.00" arrival="168.00" arrivalLane="8_1" arrivalPos="89.60" arrivalSpeed="13.00" duration="40.00" routeLength="178.77" waitingTime="15.00" waitingCount="1" stopTime="0.00" timeLoss="25.28" rerouteNo="0" devices="tripinfo_64" vType="DEFAULT_VEHTYPE" speedFactor="0.94" vaporized=""/>
    <tripinfo id="75" depart="150.00" departLane="7_0" departPos="5.10" departSpeed="0.00" departDelay="0.00" arrival="169.00" arrivalLane="6_0" arrivalPos="89.60" arrivalSpeed="13.00" duration="19.00" routeLength="194.90" waitingTime="0.00" waitingCount="0" stopTime="0.00" timeLoss="3.98" rerouteNo="0" devices="tripinfo_75" vType="DEFAULT_VEHTYPE" speedFactor="0.98" vaporized=""/>
    <tripinfo id="66" depart="132.00" departLane="7_0" departPos="5.10" departSpeed="0.00" departDelay="0.00" arrival="172.00" arrivalLane="8_1" arrivalPos="89.60" arrivalSpeed="12.40" duration="40.00" routeLength="178.77" waitingTime="12.00" waitingCount="1" stopTime="0.00" timeLoss="24.82" rerouteNo="0" devices="tripinfo_66" vType="DEFAULT_VEHTYPE" speedFactor="0.91" vaporized=""/>
    <tripinfo id="59" depart="118.00" departLane="5_0" departPos="5.10" departSpeed="0.00" departDelay="0.00" arrival="173.00" arrivalLane="2_1" arrivalPos="89.60" arrivalSpeed="12.81" duration="55.00" routeLength="193.45" waitingTime="31.00" waitingCount="2" stopTime="0.00" timeLoss="39.78" rerouteNo="0" devices="tripinfo_59" vType="DEFAULT_VEHTYPE" speedFactor="0.97" vaporized=""/>
    <tripinfo id="73" depart="146.00" departLane="5_0" departPos="5.10" departSpeed="0.00" departDelay="0.00" arrival="175.00" arrivalLane="6_1" arrivalPos="89.60" arrivalSpeed="13.79" duration="29.00" routeLength="178.77" waitingTime="5.00" waitingCount="1" stopTime="0.00" timeLoss="15.53" rerouteNo="0" devices="tripinfo_73" vType="DEFAULT_VEHTYPE" speedFactor="1.06" vaporized=""/>
    <tripinfo id="82" depart="164.00" departLane="7_0" departPos="5.10" departSpeed="0.00" departDelay="0.00" arrival="184.00" arrivalLane="2_0" arrivalPos="89.60" arrivalSpeed="14.01" duration="20.00" routeLength="183.13" waitingTime="0.00" waitingCount="0" stopTime="0.00" timeLoss="5.96" rerouteNo="0" devices="tripinfo_82" vType="DEFAULT_VEHTYPE" speedFactor="1.02" vaporized=""/>
    <tripinfo id="85" depart="170.00" departLane="7_0" departPos="5.10" departSpeed="0.00" departDelay="0.00" arrival="189.00" arrivalLane="6_0" arrivalPos="89.60" arrivalSpeed="13.26" duration="19.00" routeLength="194.90" waitingTime="0.00" waitingCount="0" stopTime="0.00" timeLoss="3.79" rerouteNo="0" devices="tripinfo_85" vType="DEFAULT_VEHTYPE" speedFactor="0.98" vaporized=""/>
    <tripinfo id="71" depart="143.00" departLane="3_0" departPos="5.10" departSpeed="0.00" departDelay="1.00" arrival="194.00" arrivalLane="8_0" arrivalPos="89.60" arrivalSpeed="13.30" duration="51.00" routeLength="183.13" waitingTime="28.00" waitingCount="1" stopTime="0.00" timeLoss="36.35" rerouteNo="0" devices="tripinfo_71" vType="DEFAULT_VEHTYPE" speedFactor="0.97" vaporized=""/>